LAMMPS (29 Aug 2024)
OMP_NUM_THREADS environment is not set. Defaulting to 1 thread. (src/comm.cpp:98)
  using 1 OpenMP thread(s) per MPI task
Loaded 1 plugins from /scratch/network/yp0007/GEO419_Lec3/software/deepmd-kit/lib/deepmd_lmp
# sample LAMMPS input script for diffusion of 2d LJ liquid
# mean-squared displacement via compute msd

# settings

variable	x equal 40
variable	y equal 40

variable	rho equal 0.6
variable        t equal 1.0
variable	rc equal 2.5

# problem setup

units		lj
dimension	2
atom_style	atomic
neigh_modify	delay 0 every 1

lattice         sq2 ${rho}
lattice         sq2 0.6
Lattice spacing in x,y,z = 1.8257419 1.8257419 1.8257419
region          simbox block 0 $x 0 $y -0.1 0.1
region          simbox block 0 40 0 $y -0.1 0.1
region          simbox block 0 40 0 40 -0.1 0.1
create_box      1 simbox
Created orthogonal box = (0 0 -0.18257419) to (73.029674 73.029674 0.18257419)
  1 by 1 by 1 MPI processor grid
create_atoms    1 box
Created 3200 atoms
  using lattice units in orthogonal box = (0 0 -0.18257419) to (73.029674 73.029674 0.18257419)
  create_atoms CPU = 0.000 seconds

pair_style      lj/cut ${rc}
pair_style      lj/cut 2.5
pair_coeff      * * 1 1

mass            * 1.0
velocity        all create $t 97287
velocity        all create 1 97287

fix             1 all nve
fix	        2 all langevin $t $t 0.1 498094
fix	        2 all langevin 1 $t 0.1 498094
fix	        2 all langevin 1 1 0.1 498094
fix	        3 all enforce2d

# equilibration run

thermo          100
run	        5000
Generated 0 of 0 mixed pair_coeff terms from geometric mixing rule
Neighbor list info ...
  update: every = 1 steps, delay = 0 steps, check = yes
  max neighbors/atom: 2000, page size: 100000
  master list distance cutoff = 2.8
  ghost atom cutoff = 2.8
  binsize = 1.4, bins = 53 53 1
  1 neighbor lists, perpetual/occasional/extra = 1 0 0
  (1) pair lj/cut, perpetual
      attributes: half, newton on
      pair build: half/bin/atomonly/newton
      stencil: half/bin/2d
      bin: standard
Per MPI rank memory allocation (min/avg/max) = 3.096 | 3.096 | 3.096 Mbytes
   Step          Temp          E_pair         E_mol          TotEng         Press     
         0   1             -1.56492        0             -0.5652325     -1.5346995    
       100   1.0145101     -1.488619       0             -0.47442592     0.6745334    
       200   1.0165564     -1.5574867      0             -0.54124795     0.6612303    
       300   1.0078066     -1.5456685      0             -0.53817685     0.93608085   
       400   1.0108285     -1.5665665      0             -0.55605391     0.96578742   
       500   1.0081317     -1.5872121      0             -0.57939548     0.87129736   
       600   0.98519261    -1.5790206      0             -0.59413587     0.95272835   
       700   1.0094841     -1.5809491      0             -0.57178041     0.93871793   
       800   0.98668127    -1.5629369      0             -0.57656398     1.0025578    
       900   1.0188799     -1.576124       0             -0.55756249     0.95348754   
      1000   1.0077088     -1.5683961      0             -0.56100221     1.0680204    
      1100   1.0105557     -1.5921045      0             -0.5818646      0.95032094   
      1200   1.0099195     -1.6054432      0             -0.59583928     0.88737799   
      1300   1.0212109     -1.592931       0             -0.57203926     0.93574171   
      1400   0.99196198    -1.5854886      0             -0.59383658     0.94449206   
      1500   0.99145991    -1.5788037      0             -0.5876536      0.97766601   
      1600   1.0011744     -1.595383       0             -0.5945215      0.86548895   
      1700   0.9907038     -1.5697192      0             -0.579325       0.99378596   
      1800   0.97358246    -1.5890982      0             -0.61581995     0.91611872   
      1900   1.0226124     -1.5847102      0             -0.56241743     0.98353416   
      2000   1.0103884     -1.5798406      0             -0.56976794     0.98717879   
      2100   1.0042926     -1.5774458      0             -0.57346704     1.0269349    
      2200   1.0366203     -1.5603512      0             -0.52405485     1.120855     
      2300   1.0027311     -1.5805525      0             -0.57813466     1.0431247    
      2400   0.9719891     -1.5795504      0             -0.607865       1.003392     
      2500   0.99313701    -1.6041533      0             -0.61132661     0.87775195   
      2600   0.98014892    -1.5775305      0             -0.59768786     1.0007258    
      2700   1.0098283     -1.573455       0             -0.56394235     1.0951596    
      2800   1.0274301     -1.5940822      0             -0.56697321     0.93512476   
      2900   1.0100541     -1.5811531      0             -0.57141463     0.98908557   
      3000   1.0047534     -1.5949995      0             -0.59056012     0.9078984    
      3100   1.0122595     -1.579654       0             -0.5677108      1.0737747    
      3200   1.0185259     -1.5761469      0             -0.55793925     1.0637449    
      3300   0.98919058    -1.5800963      0             -0.59121479     1.0067622    
      3400   0.98976728    -1.5786403      0             -0.58918235     0.98121948   
      3500   1.0063368     -1.602924       0             -0.59690167     0.90519151   
      3600   0.96917       -1.5920907      0             -0.62322356     0.95526178   
      3700   0.98140338    -1.5995183      0             -0.61842159     0.93804328   
      3800   1.0091049     -1.5920031      0             -0.58321348     0.93353875   
      3900   1.0097029     -1.5816575      0             -0.57227014     0.99024517   
      4000   0.98056258    -1.5808049      0             -0.60054878     0.95884736   
      4100   0.98965595    -1.5857         0             -0.5963533      0.98600942   
      4200   1.0170657     -1.596492       0             -0.57974407     0.93495655   
      4300   0.99356102    -1.5975861      0             -0.60433554     0.93730666   
      4400   1.024057      -1.5911977      0             -0.56746071     0.99316699   
      4500   0.97571108    -1.5777031      0             -0.60229689     1.0629623    
      4600   1.0047108     -1.5996455      0             -0.5952487      0.9206682    
      4700   1.0380651     -1.5868492      0             -0.54910842     1.0827773    
      4800   1.0040544     -1.5861244      0             -0.5823837      0.96752869   
      4900   1.0236735     -1.5897816      0             -0.566428       1.0551392    
      5000   0.97356247    -1.5797252      0             -0.60646694     1.0536996    
Loop time of 2.46269 on 1 procs for 5000 steps with 3200 atoms

Performance: 877088.312 tau/day, 2030.297 timesteps/s, 6.497 Matom-step/s
99.7% CPU use with 1 MPI tasks x 1 OpenMP threads

MPI task timing breakdown:
Section |  min time  |  avg time  |  max time  |%varavg| %total
---------------------------------------------------------------
Pair    | 1.2539     | 1.2539     | 1.2539     |   0.0 | 50.92
Neigh   | 0.3764     | 0.3764     | 0.3764     |   0.0 | 15.28
Comm    | 0.02723    | 0.02723    | 0.02723    |   0.0 |  1.11
Output  | 0.00075641 | 0.00075641 | 0.00075641 |   0.0 |  0.03
Modify  | 0.76628    | 0.76628    | 0.76628    |   0.0 | 31.12
Other   |            | 0.03812    |            |       |  1.55

Nlocal:           3200 ave        3200 max        3200 min
Histogram: 1 0 0 0 0 0 0 0 0 0
Nghost:            497 ave         497 max         497 min
Histogram: 1 0 0 0 0 0 0 0 0 0
Neighs:          22388 ave       22388 max       22388 min
Histogram: 1 0 0 0 0 0 0 0 0 0

Total # of neighbors = 22388
Ave neighs/atom = 6.99625
Neighbor list builds = 597
Dangerous builds = 0

unfix		2

# data gathering run

reset_timestep  0

# factor of 4 in 2 variables is for 2d

compute         msd all msd com yes
variable        twopoint equal c_msd[4]/4/(step*dt+1.0e-6)
fix             9 all vector 10 c_msd[4]
variable        fitslope equal slope(f_9)/4/(10*dt)

thermo_style	custom step temp c_msd[4] v_twopoint v_fitslope

# only need to run for 10K steps to make a good 100-frame movie

dump	        1 all custom 10 traj.dump id type x y z

#dump		2 all image 100 image.*.jpg type type zoom 1.6 adiam 1.2

thermo          100
run	        10000
Generated 0 of 0 mixed pair_coeff terms from geometric mixing rule
Per MPI rank memory allocation (min/avg/max) = 3.471 | 3.471 | 3.471 Mbytes
   Step          Temp         c_msd[4]      v_twopoint     v_fitslope  
         0   0.97356247     1.0108464e-28  2.5271159e-23  5e+20        
       100   0.9812225      0.23572259     0.11786106     0.12338721   
       200   0.98824014     0.58251335     0.14562819     0.15235582   
       300   0.9891143      0.96331398     0.16055222     0.16746609   
       400   0.99247026     1.3618714      0.17023384     0.17724476   
       500   0.99203975     1.7739274      0.17739267     0.18417823   
       600   0.98042105     2.1977905      0.18314914     0.18974186   
       700   0.99421156     2.6188138      0.18705808     0.19393103   
       800   0.98732051     3.04092        0.19005745     0.1969895    
       900   0.98474128     3.4382181      0.19101207     0.19908728   
      1000   0.9859277      3.8655438      0.19327715     0.20044609   
      1100   0.97741114     4.3173229      0.19624192     0.20231272   
      1200   0.99565449     4.769549       0.19873117     0.20413762   
      1300   0.98713081     5.2240271      0.20092409     0.20609336   
      1400   0.98217292     5.6531206      0.20189713     0.20759315   
      1500   0.97001016     6.1564631      0.20521541     0.20916375   
      1600   0.9845699      6.6123691      0.20663651     0.21103676   
      1700   0.98958711     7.0585579      0.20760462     0.21250197   
      1800   0.98964187     7.5550416      0.20986224     0.21388624   
      1900   0.98424527     8.0535655      0.21193591     0.21551637   
      2000   0.9793578      8.5461883      0.21365469     0.21720168   
      2100   0.98013421     9.0261307      0.21490785     0.21877219   
      2200   0.98468368     9.5284699      0.21655611     0.22026513   
      2300   0.98450802     10.084376      0.21922556     0.22186662   
      2400   0.98518231     10.608491      0.22101021     0.22354359   
      2500   0.97959821     11.231292      0.22462582     0.22546214   
      2600   0.97492176     11.83533       0.22760248     0.22764985   
      2700   0.98508309     12.367593      0.22902947     0.22989065   
      2800   0.98926152     12.894169      0.230253       0.23187328   
      2900   0.99802506     13.460761      0.23208206     0.23380481   
      3000   0.99107971     14.020492      0.23367484     0.23566475   
      3100   0.98413477     14.583326      0.23521492     0.23748816   
      3200   1.0020757      15.167236      0.23698804     0.23924875   
      3300   0.99992432     15.740919      0.23849876     0.24098009   
      3400   1.0016487      16.22576       0.23861411     0.24249441   
      3500   0.99720004     16.820018      0.24028596     0.24394353   
      3600   0.99654621     17.383581      0.24143861     0.24539796   
      3700   0.97585188     17.963478      0.24274969     0.24676549   
      3800   0.993677       18.495092      0.24335645     0.24803631   
      3900   0.97655166     19.041579      0.24412279     0.24921275   
      4000   0.99133974     19.642744      0.24553429     0.25036273   
      4100   0.97362977     20.171304      0.2459915      0.251452     
      4200   0.99151082     20.7497        0.24702022     0.25247981   
      4300   0.99968261     21.278563      0.24742514     0.25344477   
      4400   0.98261727     21.825062      0.24801206     0.25434663   
      4500   0.99562962     22.364704      0.2484967      0.25517919   
      4600   0.98512788     22.951661      0.24947457     0.25597634   
      4700   0.99880323     23.44135       0.24937605     0.25671575   
      4800   1.0012129      24.01047       0.25010905     0.25738813   
      4900   0.97634068     24.619073      0.25121502     0.25808586   
      5000   0.9849214      25.093508      0.25093507     0.25871934   
      5100   0.98915982     25.646409      0.25143538     0.25926672   
      5200   0.97449044     26.234668      0.25225641     0.2598137    
      5300   0.99497505     26.794943      0.25278247     0.26039192   
      5400   0.98791238     27.375959      0.25348109     0.26094085   
      5500   0.99068634     27.954507      0.25413188     0.26147951   
      5600   0.97382166     28.55672       0.25497071     0.26200963   
      5700   0.99159069     29.186996      0.25602627     0.26257987   
      5800   0.98854365     29.868844      0.25749002     0.26322631   
      5900   1.0030017      30.460961      0.25814373     0.2638705    
      6000   0.99618156     31.050673      0.2587556      0.26454037   
      6100   0.99152158     31.655253      0.25946928     0.26518759   
      6200   1.000374       32.305218      0.26052594     0.26583626   
      6300   0.99681129     33.063437      0.26240822     0.26657008   
      6400   1.0027624      33.695261      0.26324422     0.26734135   
      6500   0.98539224     34.288918      0.2637609      0.26812168   
      6600   0.98329914     34.882499      0.26426135     0.26883212   
      6700   0.98358236     35.524634      0.2651092      0.26953904   
      6800   0.9858195      36.211426      0.26626048     0.27028627   
      6900   1.003885       36.929696      0.26760649     0.27106439   
      7000   0.98166119     37.68287       0.26916335     0.27189919   
      7100   0.99759763     38.303479      0.2697428      0.27275544   
      7200   0.99602123     38.950304      0.27048822     0.27356262   
      7300   0.98268939     39.581503      0.27110618     0.27437533   
      7400   0.99388629     40.221574      0.27176739     0.27517367   
      7500   0.98076002     41.038101      0.27358733     0.27599998   
      7600   0.97968925     41.866073      0.27543468     0.27689442   
      7700   0.98714811     42.605811      0.27666111     0.27785086   
      7800   1.0064617      43.372565      0.27802926     0.27882111   
      7900   0.99157625     44.28111       0.28026018     0.27986205   
      8000   0.99245377     45.076965      0.28173102     0.28097003   
      8100   0.9782267      45.826243      0.28287804     0.28207575   
      8200   0.97780059     46.584709      0.2840531      0.28319439   
      8300   0.98786507     47.338058      0.28516902     0.28431306   
      8400   1.001111       48.118018      0.28641677     0.28543513   
      8500   0.9880305      48.749362      0.28676095     0.28653183   
      8600   1.00056        49.529025      0.28795944     0.28760583   
      8700   0.99723766     50.290518      0.28902596     0.28868839   
      8800   1.0002138      50.906875      0.2892436      0.28973584   
      8900   0.99569399     51.697689      0.29043645     0.29075915   
      9000   0.99444457     52.535366      0.29186314     0.29181407   
      9100   0.99185051     53.144403      0.29200221     0.29284485   
      9200   0.98793329     53.742622      0.29207946     0.29382176   
      9300   0.98132647     54.325104      0.29207045     0.29472046   
      9400   0.98374223     55.066035      0.29290444     0.29559081   
      9500   0.98975834     55.659564      0.29294507     0.29644087   
      9600   0.99076026     56.375669      0.29362327     0.29725623   
      9700   0.99265609     57.169974      0.29469058     0.2980708    
      9800   0.98837923     57.890873      0.29536159     0.29888608   
      9900   0.98919099     58.725002      0.29659091     0.2997117    
     10000   0.97415754     59.582035      0.29791017     0.30055839   
Loop time of 8.0418 on 1 procs for 10000 steps with 3200 atoms

Performance: 537193.134 tau/day, 1243.503 timesteps/s, 3.979 Matom-step/s
99.3% CPU use with 1 MPI tasks x 1 OpenMP threads

MPI task timing breakdown:
Section |  min time  |  avg time  |  max time  |%varavg| %total
---------------------------------------------------------------
Pair    | 2.4835     | 2.4835     | 2.4835     |   0.0 | 30.88
Neigh   | 0.80951    | 0.80951    | 0.80951    |   0.0 | 10.07
Comm    | 0.058539   | 0.058539   | 0.058539   |   0.0 |  0.73
Output  | 4.2872     | 4.2872     | 4.2872     |   0.0 | 53.31
Modify  | 0.32505    | 0.32505    | 0.32505    |   0.0 |  4.04
Other   |            | 0.07798    |            |       |  0.97

Nlocal:           3200 ave        3200 max        3200 min
Histogram: 1 0 0 0 0 0 0 0 0 0
Nghost:            507 ave         507 max         507 min
Histogram: 1 0 0 0 0 0 0 0 0 0
Neighs:          22462 ave       22462 max       22462 min
Histogram: 1 0 0 0 0 0 0 0 0 0

Total # of neighbors = 22462
Ave neighs/atom = 7.019375
Neighbor list builds = 1275
Dangerous builds = 0
Total wall time: 0:00:11
